! TOUCHSTONE file generated by CST MICROWAVE STUDIO
! Date and time: Fri Oct 07 12:43:53 2016
! Project name: scripted_coupler.cst
! Header version: 2015
! Port assignment regex: !\s*Touchstone port\s*([0-9]+)\s*=\s*CST MWS port\s*([0-9]+)\s*\(\"(.*)\"\)(\s*mode\s*([0-9]+))?.*
! Touchstone port assignment:
! Touchstone port 1 = CST MWS port 1 ("in")
! Touchstone port 2 = CST MWS port 2 ("out1")
! Touchstone port 3 = CST MWS port 3 ("out2")
! S-Parameters are not renormalized. Unphysical impedance of 50 will be written to the file.
# GHZ S MA R 50
174073                 0.0148136         113.604         0.602454        -126.395         0.605371        -126.754  
                        0.606355        -126.726        0.0979746         113.698         0.116062        -71.2999  
                        0.605371        -126.754         0.116062        -71.2999        0.0979746         113.698  
174112                 0.0144823         117.931         0.602645        -129.395         0.605509        -129.753  
                        0.606498        -129.724         0.101169         110.313         0.118028        -74.4747  
                        0.605509        -129.753         0.118028        -74.4747         0.101169         110.313  
174150                 0.0144112         122.466         0.602833        -132.395         0.605645        -132.751  
                        0.606641        -132.723         0.104969         106.586         0.120789        -77.8845  
                        0.605645        -132.751         0.120789        -77.8845         0.104969         106.586  
174189                 0.0146027          126.91         0.603017        -135.395         0.605782         -135.75  
                        0.606783        -135.722         0.109275           102.5         0.124256        -81.5792  
                        0.605782         -135.75         0.124256        -81.5792         0.109275           102.5  
174228                 0.0150419          130.98         0.603199        -138.395         0.605918        -138.749  
                        0.606925        -138.721          0.11399         98.0593         0.128327        -85.5883  
                        0.605918        -138.749         0.128327        -85.5883          0.11399         98.0593  
174266                 0.0157007         134.471         0.603378        -141.396         0.606054        -141.748  
                        0.607067         -141.72          0.11902         93.2797         0.132898        -89.9227  
                        0.606054        -141.748         0.132898        -89.9227          0.11902         93.2797  
174305                 0.0165427          137.27         0.603556        -144.396          0.60619        -144.748  
                        0.607208        -144.719         0.124277         88.1854         0.137867        -94.5789  
                         0.60619        -144.748         0.137867        -94.5789         0.124277         88.1854  
174344                 0.0175299         139.351         0.603732        -147.396         0.606325        -147.747  
                        0.607348        -147.719         0.129681         82.8046         0.143134        -99.5431  
                        0.606325        -147.747         0.143134        -99.5431         0.129681         82.8046  
174383                  0.018626         140.746         0.603907        -150.395         0.606459        -150.747  
                        0.607488        -150.718         0.135159         77.1665         0.148609        -104.795  
                        0.606459        -150.747         0.148609        -104.795         0.135159         77.1665  
174421                 0.0197984         141.518         0.604081        -153.395         0.606594        -153.746  
                        0.607627        -153.718         0.140646         71.2996         0.154209        -110.311  
                        0.606594        -153.746         0.154209        -110.311         0.140646         71.2996  
174460                 0.0210194         141.744         0.604255        -156.395         0.606727        -156.746  
                        0.607765        -156.718         0.146083         65.2309         0.159859        -116.067  
                        0.606727        -156.746         0.159859        -116.067         0.146083         65.2309  
174499                 0.0222654         141.497         0.604429        -159.394          0.60686        -159.746  
                        0.607902        -159.719         0.151418         58.9848         0.165492        -122.037  
                         0.60686        -159.746         0.165492        -122.037         0.151418         58.9848  
174537                 0.0235169         140.846         0.604603        -162.394         0.606993        -162.746  
                        0.608038        -162.719         0.156605         52.5835          0.17105        -128.199  
                        0.606993        -162.746          0.17105        -128.199         0.156605         52.5835  
174576                 0.0247572         139.852         0.604779        -165.393         0.607125        -165.747  
                        0.608174         -165.72           0.1616         46.0467          0.17648         -134.53  
                        0.607125        -165.747          0.17648         -134.53           0.1616         46.0467  
174615                 0.0259725         138.566         0.604956        -168.392         0.607257        -168.747  
                        0.608308        -168.721         0.166368         39.3918         0.181735         -141.01  
                        0.607257        -168.747         0.181735         -141.01         0.166368         39.3918  
174653                 0.0271508         137.031         0.605135        -171.391         0.607387        -171.748  
                        0.608442        -171.722         0.170875         32.6345         0.186775        -147.622  
                        0.607387        -171.748         0.186775        -147.622         0.170875         32.6345  
174692                 0.0282822         135.283         0.605317         -174.39         0.607517        -174.748  
                        0.608574        -174.723         0.175091         25.7881         0.191564        -154.348  
                        0.607517        -174.748         0.191564        -154.348         0.175091         25.7881  
174731                 0.0293579         133.352         0.605502        -177.389         0.607647        -177.749  
                        0.608706        -177.724         0.178992         18.8649          0.19607        -161.174  
                        0.607647        -177.749          0.19607        -161.174         0.178992         18.8649  
174769                 0.0303704         131.262         0.605692         179.612         0.607776          179.25  
                        0.608836         179.274         0.182554         11.8754         0.200264        -168.088  
                        0.607776          179.25         0.200264        -168.088         0.182554         11.8754  
174808                  0.031313         129.033         0.605886         176.613         0.607904         176.249  
                        0.608965         176.273         0.185759         4.82921         0.204124        -175.076  
                        0.607904         176.249         0.204124        -175.076         0.185759         4.82921  
174847                   0.03218         126.684         0.606085         173.615         0.608031         173.248  
                        0.609093         173.271          0.18859        -2.26515         0.207628         177.873  
                        0.608031         173.248         0.207628         177.873          0.18859        -2.26515  
174885                 0.0329664         124.227         0.606291         170.616         0.608158         170.246  
                         0.60922         170.269         0.191035        -9.39998         0.210759         170.766  
                        0.608158         170.246         0.210759         170.766         0.191035        -9.39998  
174924                  0.033668         121.675         0.606503         167.617         0.608283         167.245  
                        0.609345         167.267         0.193082        -16.5682         0.213501         163.615  
                        0.608283         167.245         0.213501         163.615         0.193082        -16.5682  
174963                 0.0342808         119.037         0.606722         164.618         0.608408         164.243  
                         0.60947         164.265         0.194725        -23.7635         0.215843         156.427  
                        0.608408         164.243         0.215843         156.427         0.194725        -23.7635  
175001                 0.0348018         116.322          0.60695         161.618         0.608532         161.241  
                        0.609593         161.262         0.195958        -30.9796         0.217775         149.209  
                        0.608532         161.241         0.217775         149.209         0.195958        -30.9796  
175040                 0.0352282         113.536         0.607185         158.618         0.608656         158.239  
                        0.609714          158.26         0.196778        -38.2108         0.219289          141.97  
                        0.608656         158.239         0.219289          141.97         0.196778        -38.2108  
175079                 0.0355577         110.685          0.60743         155.618         0.608778         155.237  
                        0.609835         155.257         0.197187        -45.4518         0.220381         134.715  
                        0.608778         155.237         0.220381         134.715         0.197187        -45.4518  
175117                 0.0357885         107.773         0.607683         152.617           0.6089         152.235  
                        0.609954         152.254         0.197186         -52.697         0.221048         127.451  
                          0.6089         152.235         0.221048         127.451         0.197186         -52.697  
175156                 0.0359194         104.804         0.607946         149.616         0.609021         149.233  
                        0.610072         149.252         0.196781        -59.9412         0.221289         120.185  
                        0.609021         149.233         0.221289         120.185         0.196781        -59.9412  
175195                 0.0359493          101.78         0.608218         146.613         0.609141         146.231  
                        0.610188         146.249         0.195979        -67.1792         0.221107         112.923  
                        0.609141         146.231         0.221107         112.923         0.195979        -67.1792  
175234                 0.0358777         98.7038         0.608499          143.61          0.60926         143.228  
                        0.610303         143.245         0.194789        -74.4053         0.220505         105.671  
                         0.60926         143.228         0.220505         105.671         0.194789        -74.4053  
175272                 0.0357044         95.5761         0.608789         140.605         0.609378         140.225  
                        0.610417         140.242         0.193223        -81.6142         0.219489         98.4357  
                        0.609378         140.225         0.219489         98.4357         0.193223        -81.6142  
175311                 0.0354298         92.3975         0.609086         137.599         0.609495         137.223  
                        0.610529         137.239         0.191295        -88.7998         0.218068         91.2226  
                        0.609495         137.223         0.218068         91.2226         0.191295        -88.7998  
175350                 0.0350543         89.1678         0.609391         134.591         0.609611          134.22  
                        0.610641         134.235         0.189019        -95.9562         0.216252         84.0386  
                        0.609611          134.22         0.216252         84.0386         0.189019        -95.9562  
175388                 0.0345791          85.886         0.609701         131.582         0.609727         131.217  
                         0.61075         131.232         0.186415        -103.077         0.214052         76.8904  
                        0.609727         131.217         0.214052         76.8904         0.186415        -103.077  
175427                 0.0340053         82.5502         0.610016         128.571         0.609841         128.214  
                        0.610859         128.228           0.1835        -110.154         0.211484         69.7851  
                        0.609841         128.214         0.211484         69.7851           0.1835        -110.154  
175466                 0.0333349         79.1579         0.610334         125.558         0.609955         125.211  
                        0.610966         125.225         0.180297        -117.181         0.208565         62.7302  
                        0.609955         125.211         0.208565         62.7302         0.180297        -117.181  
175504                 0.0325698         75.7054         0.610653         122.543         0.610068         122.208  
                        0.611072         122.221         0.176828        -124.149         0.205313         55.7335  
                        0.610068         122.208         0.205313         55.7335         0.176828        -124.149  
175543                 0.0317125         72.1876         0.610971         119.526          0.61018         119.204  
                        0.611177         119.217          0.17312        -131.049          0.20175         48.8037  
                         0.61018         119.204          0.20175         48.8037          0.17312        -131.049  
175582                 0.0307659         68.5983         0.611285         116.507         0.610291         116.201  
                        0.611281         116.213         0.169198        -137.872         0.197901         41.9498  
                        0.610291         116.201         0.197901         41.9498         0.169198        -137.872  
175620                 0.0297333         64.9293         0.611593         113.485         0.610401         113.197  
                        0.611383         113.209         0.165091        -144.606         0.193791         35.1817  
                        0.610401         113.197         0.193791         35.1817         0.165091        -144.606  
175659                 0.0286182         61.1704         0.611893         110.461          0.61051         110.194  
                        0.611484         110.205         0.160831        -151.241         0.189451         28.5099  
                         0.61051         110.194         0.189451         28.5099         0.160831        -151.241  
175698                 0.0274248         57.3082          0.61218         107.434         0.610618          107.19  
                        0.611584         107.201         0.156451        -157.764         0.184913         21.9457  
                        0.610618          107.19         0.184913         21.9457         0.156451        -157.764  
175736                 0.0261577         53.3259         0.612454         104.405         0.610726         104.186  
                        0.611683         104.197         0.151986        -164.161         0.180212         15.5015  
                        0.610726         104.186         0.180212         15.5015         0.151986        -164.161  
175775                  0.024822         49.2019         0.612709         101.374         0.610833         101.182  
                        0.611781         101.193         0.147474        -170.418         0.175387         9.19015  
                        0.610833         101.182         0.175387         9.19015         0.147474        -170.418  
175814                 0.0234238         44.9079         0.612943         98.3411         0.610938         98.1785  
                        0.611878         98.1886         0.142956        -176.521         0.170481         3.02541  
                        0.610938         98.1785         0.170481         3.02541         0.142956        -176.521  
175852                 0.0219696         40.4069         0.613154         95.3057         0.611044         95.1745  
                        0.611973         95.1843         0.138475         177.546         0.165541        -2.97852  
                        0.611044         95.1745         0.165541        -2.97852         0.138475         177.546  
175891                 0.0204673         35.6497         0.613338         92.2685         0.611148         92.1704  
                        0.612068           92.18         0.134078         171.797         0.160615        -8.80724  
                        0.611148         92.1704         0.160615        -8.80724         0.134078         171.797  
175930                 0.0189263         30.5695         0.613491         89.2295         0.611251         89.1663  
                        0.612162         89.1757         0.129814         166.248          0.15576        -14.4467  
                        0.611251         89.1663          0.15576        -14.4467         0.129814         166.248  
175969                 0.0173581         25.0751         0.613612         86.1891         0.611354         86.1621  
                        0.612255         86.1713         0.125736          160.91         0.151032        -19.8836  
                        0.611354         86.1621         0.151032        -19.8836         0.125736          160.91  
176007                 0.0157772         19.0391         0.613698         83.1474         0.611456         83.1579  
                        0.612347         83.1669         0.121897         155.794         0.146494        -25.1068  
                        0.611456         83.1579         0.146494        -25.1068         0.121897         155.794  
176046                  0.014203          12.282         0.613747         80.1048         0.611558         80.1536  
                        0.612438         80.1625         0.118354         150.904          0.14221        -30.1082  
                        0.611558         80.1536          0.14221        -30.1082         0.118354         150.904  
176085                 0.0126624         4.54944         0.613756         77.0617         0.611658         77.1492  
                        0.612529         77.1581         0.115165         146.239         0.138248        -34.8842  
                        0.611658         77.1492         0.138248        -34.8842         0.115165         146.239  
176123                 0.0111939        -4.51367         0.613724         74.0184         0.611758         74.1448  
                        0.612618         74.1536         0.112384         141.791         0.134675        -39.4375  
                        0.611758         74.1448         0.134675        -39.4375         0.112384         141.791  
176162                0.00985464        -15.3743          0.61365         70.9753         0.611858         71.1403  
                        0.612707         71.1492         0.110063         137.542         0.131556        -43.7785  
                        0.611858         71.1403         0.131556        -43.7785         0.110063         137.542  
176201                0.00872796        -28.5443         0.613533         67.9328         0.611956         68.1358  
                        0.612796         68.1447          0.10825         133.464         0.128953        -47.9268  
                        0.611956         68.1358         0.128953        -47.9268          0.10825         133.464  
176239                0.00792634        -44.3005         0.613373         64.8913         0.612055         65.1312  
                        0.612884         65.1402         0.106981          129.52         0.126921        -51.9118  
                        0.612055         65.1312         0.126921        -51.9118         0.106981          129.52  
176278                0.00757059         -62.126         0.613171         61.8513         0.612152         62.1266  
                        0.612971         62.1357         0.106283         125.662           0.1255        -55.7721  
                        0.612152         62.1266           0.1255        -55.7721         0.106283         125.662  
176317                 0.0077333         -80.404         0.612927         58.8132         0.612249         59.1219  
                        0.613058         59.1311         0.106168          121.84         0.124723        -59.5544  
                        0.612249         59.1219         0.124723        -59.5544         0.106168          121.84  
176355                0.00838907        -97.2225         0.612642         55.7774         0.612346         56.1172  
                        0.613144         56.1266         0.106635             118           0.1246        -63.3105  
                        0.612346         56.1172           0.1246        -63.3105         0.106635             118  
176394                0.00943519        -111.561         0.612318         52.7444         0.612442         53.1125  
                         0.61323         53.1221         0.107667         114.088          0.12513        -67.0941  
                        0.612442         53.1125          0.12513        -67.0941         0.107667         114.088  
176433                 0.0107539        -123.421         0.611958         49.7146         0.612538         50.1077  
                        0.613315         50.1175         0.109235          110.06         0.126291        -70.9562  
                        0.612538         50.1077         0.126291        -70.9562         0.109235          110.06  
176471                 0.0122501        -133.263         0.611565         46.6884         0.612633         47.1029  
                        0.613401         47.1129         0.111297         105.877         0.128046        -74.9425  
                        0.612633         47.1029         0.128046        -74.9425         0.111297         105.877  
176510                 0.0138567        -141.593         0.611143         43.6662         0.612728          44.098  
                        0.613486         44.1084         0.113806          101.51         0.130348        -79.0903  
                        0.612728          44.098         0.130348        -79.0903         0.113806          101.51  
176549                 0.0155283        -148.815         0.610694         40.6484         0.612822         41.0931  
                         0.61357         41.1038         0.116705         96.9409         0.133137        -83.4277  
                        0.612822         41.0931         0.133137        -83.4277         0.116705         96.9409  
176587                 0.0172336        -155.226         0.610224         37.6352         0.612916         38.0881  
                        0.613655         38.0992         0.119936         92.1603          0.13635        -87.9722  
                        0.612916         38.0881          0.13635        -87.9722         0.119936         92.1603  
176626                 0.0189502        -161.035         0.609738          34.627          0.61301         35.0832  
                        0.613739         35.0946         0.123442         87.1666         0.139918        -92.7334  
                         0.61301         35.0832         0.139918        -92.7334         0.123442         87.1666  
176665                 0.0206616        -166.392         0.609241          31.624         0.613104         32.0781  
                        0.613824           32.09         0.127164         81.9644         0.143774        -97.7127  
                        0.613104         32.0781         0.143774        -97.7127         0.127164         81.9644  
176703                 0.0223547        -171.402         0.608739         28.6264         0.613197         29.0731  
                        0.613908         29.0854         0.131047         76.5629         0.147852        -102.906  
                        0.613197         29.0731         0.147852        -102.906         0.131047         76.5629  
176742                 0.0240191        -176.142         0.608237         25.6342          0.61329          26.068  
                        0.613993         26.0808         0.135038         70.9741         0.152087        -108.304  
                         0.61329          26.068         0.152087        -108.304         0.135038         70.9741  
176781                 0.0256461          179.33         0.607741         22.6476         0.613383         23.0629  
                        0.614077         23.0762         0.139088         65.2118          0.15642        -113.895  
                        0.613383         23.0629          0.15642        -113.895         0.139088         65.2118  
176820                  0.027228         174.974         0.607258         19.6666         0.613476         20.0577  
                        0.614162         20.0715         0.143151         59.2908         0.160797        -119.666  
                        0.613476         20.0577         0.160797        -119.666         0.143151         59.2908  
176858                 0.0287583         170.755         0.606793          16.691         0.613569         17.0525  
                        0.614246         17.0669         0.147185         53.2257         0.165167        -125.603  
                        0.613569         17.0525         0.165167        -125.603         0.147185         53.2257  
176897                 0.0302311         166.649         0.606354         13.7209         0.613661         14.0473  
                        0.614331         14.0622         0.151151         47.0311         0.169482        -131.691  
                        0.613661         14.0473         0.169482        -131.691         0.151151         47.0311  
176936                 0.0316409         162.636         0.605945          10.756         0.613754          11.042  
                        0.614416         11.0575         0.155015         40.7209         0.173702        -137.916  
                        0.613754          11.042         0.173702        -137.916         0.155015         40.7209  
176974                 0.0329829           158.7         0.605574         7.79599         0.613846         8.03676  
                        0.614502         8.05285         0.158743         34.3081          0.17779        -144.265  
                        0.613846         8.03676          0.17779        -144.265         0.158743         34.3081  
177013                 0.0342527         154.829         0.605245         4.84064         0.613939         5.03143  
                        0.614587         5.04813         0.162307          27.805          0.18171        -150.723  
                        0.613939         5.03143          0.18171        -150.723         0.162307          27.805  
177052                 0.0354462         151.012         0.604963         1.88954         0.614031         2.02606  
                        0.614673         2.04338          0.16568         21.2229         0.185434         -157.28  
                        0.614031         2.02606         0.185434         -157.28          0.16568         21.2229  
177090                 0.0365597         147.241         0.604735        -1.05772         0.614123       -0.979342  
                         0.61476       -0.961406         0.168839         14.5722         0.188934        -163.923  
                        0.614123       -0.979342         0.188934        -163.923         0.168839         14.5722  
177129                 0.0375899          143.51         0.604563        -4.00164         0.614216        -3.98478  
                        0.614846        -3.96618         0.171762         7.86258         0.192187        -170.642  
                        0.614216        -3.98478         0.192187        -170.642         0.171762         7.86258  
177168                 0.0385336          139.81         0.604453        -6.94275         0.614309        -6.99026  
                        0.614933          -6.971         0.174432         1.10304         0.195173        -177.428  
                        0.614309        -6.99026         0.195173        -177.428         0.174432         1.10304  
177206                 0.0393882         136.139         0.604406        -9.88162         0.614401        -9.99578  
                        0.615021        -9.97585         0.176831        -5.69827         0.197873         175.729  
                        0.614401        -9.99578         0.197873         175.729         0.176831        -5.69827  
177245                 0.0401513         132.491         0.604427        -12.8189         0.614494        -13.0013  
                        0.615109        -12.9807         0.178946        -12.5336         0.200272         168.837  
                        0.614494        -13.0013         0.200272         168.837         0.178946        -12.5336  
177284                 0.0408206         128.863         0.604516        -15.7551         0.614587        -16.0069  
                        0.615197        -15.9857         0.180765        -19.3959         0.202358         161.905  